LAMMPS data file. msi2lmp v3.9.9 / 05 Nov 2018 / CGCMM for example

   3637 atoms
   2468 bonds
   1494 angles
      0 dihedrals
      0 impropers

   4 atom types
   2 bond types
   2 angle types

     0.020807951    24.080807951 xlo xhi
    -0.008728924    24.051271076 ylo yhi
     0.510471345    65.648471345 zlo zhi

Masses

   1  15.999400 # o*
   2   1.007970 # h*
   3  12.011150 # c
   4   1.007970 # h

Pair Coeffs # lj/cut/coul/long

   1   0.1554164124   3.1655200879 # o*
   2   0.0000000000   0.0000000000 # h*
   3   0.1599999990   3.4745050026 # c
   4   0.0380000011   2.4499714540 # h

Bond Coeffs # harmonic

   1   540.6336     0.9600 # o*-h*
   2   340.6175     1.1050 # c-h

Angle Coeffs # harmonic

   1    50.0000   104.5000 # h*-o*-h*
   2    39.5000   106.4000 # h-c-h

Atoms # full

      1      1   1 -0.820000    12.030000000     0.000000000    43.081913381   0   0   0 # o*
      2      1   1 -0.820000    24.060000000     0.000000000    43.081913381   0   0   0 # o*
      3      1   1 -0.820000    12.030000000    12.030000000    43.081913381   0   0   0 # o*
      4      1   1 -0.820000    12.030000000     0.000000000    55.111913381   0   0   0 # o*
      5      1   1 -0.820000    12.030000000    12.030000000    55.111913381   0   0   0 # o*
      6      1   1 -0.820000    24.060000000     0.000000000    55.111913381   0   0   0 # o*
      7      1   1 -0.820000    24.060000000    12.030000000    49.099773381  -1   0   0 # o*
      8      1   1 -0.820000    12.030000000    12.030000000    49.099773381   0   0   0 # o*
      9      1   1 -0.820000    24.060000000     0.000000000    49.099773381  -1   1   0 # o*
     10      1   1 -0.820000    24.060000000    12.030000000    61.129773381  -1   0   0 # o*
     11      1   1 -0.820000    12.030000000    12.030000000    61.129773381   0   0   0 # o*
     12      1   1 -0.820000    24.060000000     0.000000000    61.129773381  -1   1   0 # o*
     13      1   1 -0.820000    12.030000000     2.320780000    41.497843381   0   0   0 # o*
     14      1   1 -0.820000    24.060000000     2.320780000    41.497843381   0   0   0 # o*
     15      1   1 -0.820000    12.030000000    14.350780000    41.497843381   0   0   0 # o*
     16      1   1 -0.820000    12.030000000     2.320780000    53.527843381   0   0   0 # o*
     17      1   1 -0.820000    12.030000000    14.350780000    53.527843381   0   0   0 # o*
     18      1   1 -0.820000    24.060000000     2.320780000    53.527843381   0   0   0 # o*
     19      1   1 -0.820000    12.030000000     2.320780000    50.683843381   0   0   0 # o*
     20      1   1 -0.820000    24.060000000     2.320780000    50.683843381   0   0   0 # o*
     21      1   1 -0.820000    12.030000000    14.350780000    50.683843381   0   0   0 # o*
     22      1   1 -0.820000    12.030000000     2.320780000    62.713843381   0   0   0 # o*
     23      1   1 -0.820000    12.030000000    14.350780000    62.713843381   0   0   0 # o*
     24      1   1 -0.820000    24.060000000     2.320780000    62.713843381   0   0   0 # o*
     25      1   1 -0.820000    12.030000000     9.709220000    41.497843381   0   0   0 # o*
     26      1   1 -0.820000    24.060000000    21.739220000    41.497843381  -1   0   0 # o*
     27      1   1 -0.820000    24.060000000     9.709220000    41.497843381  -1   0   0 # o*
     28      1   1 -0.820000    24.060000000     9.709220000    53.527843381  -1   0   0 # o*
     29      1   1 -0.820000    12.030000000    21.739220000    41.497843381   0   0   0 # o*
     30      1   1 -0.820000    12.030000000     9.709220000    53.527843381   0   0   0 # o*
     31      1   1 -0.820000    24.060000000    21.739220000    53.527843381  -1   0   0 # o*
     32      1   1 -0.820000    12.030000000    21.739220000    53.527843381   0   0   0 # o*
     33      1   1 -0.820000    12.030000000     9.709220000    50.683843381   0   0   0 # o*
     34      1   1 -0.820000    24.060000000    21.739220000    50.683843381  -1   0   0 # o*
     35      1   1 -0.820000    24.060000000     9.709220000    50.683843381  -1   0   0 # o*
     36      1   1 -0.820000    24.060000000     9.709220000    62.713843381  -1   0   0 # o*
     37      1   1 -0.820000    12.030000000    21.739220000    50.683843381   0   0   0 # o*
     38      1   1 -0.820000    12.030000000     9.709220000    62.713843381   0   0   0 # o*
     39      1   1 -0.820000    24.060000000    21.739220000    62.713843381  -1   0   0 # o*
     40      1   1 -0.820000    12.030000000    21.739220000    62.713843381   0   0   0 # o*
     41      1   1 -0.820000     6.015000000     3.006070000    52.105843381   0   0   0 # o*
     42      1   1 -0.820000    18.045000000     3.006070000    52.105843381   0   0   0 # o*
     43      1   1 -0.820000     6.015000000    15.036070000    52.105843381   0   0   0 # o*
     44      1   1 -0.820000    18.045000000    15.036070000    52.105843381   0   0   0 # o*
     45      1   1 -0.820000     6.015000000     3.006070000    64.135843381   0   0   0 # o*
     46      1   1 -0.820000    18.045000000     3.006070000    64.135843381   0   0   0 # o*
     47      1   1 -0.820000     6.015000000    15.036070000    64.135843381   0   0   0 # o*
     48      1   1 -0.820000    18.045000000     9.023930000    40.075843381   0   0   0 # o*
     49      1   1 -0.820000     6.015000000    21.053930000    40.075843381   0   0   0 # o*
     50      1   1 -0.820000     6.015000000     9.023930000    40.075843381   0   0   0 # o*
     51      1   1 -0.820000     6.015000000     9.023930000    52.105843381   0   0   0 # o*
     52      1   1 -0.820000    18.045000000    21.053930000    40.075843381   0   0   0 # o*
     53      1   1 -0.820000    18.045000000     9.023930000    52.105843381   0   0   0 # o*
     54      1   1 -0.820000     6.015000000    21.053930000    52.105843381   0   0   0 # o*
     55      1   1 -0.820000    18.045000000    21.053930000    52.105843381   0   0   0 # o*
     56      1   1 -0.820000    18.045000000     1.422000000    42.396623381   0   0   0 # o*
     57      1   1 -0.820000     6.015000000    13.452000000    42.396623381   0   0   0 # o*
     58      1   1 -0.820000     6.015000000     1.422000000    42.396623381   0   0   0 # o*
     59      1   1 -0.820000     6.015000000     1.422000000    54.426623381   0   0   0 # o*
     60      1   1 -0.820000    18.045000000    13.452000000    42.396623381   0   0   0 # o*
     61      1   1 -0.820000    18.045000000     1.422000000    54.426623381   0   0   0 # o*
     62      1   1 -0.820000     6.015000000    13.452000000    54.426623381   0   0   0 # o*
     63      1   1 -0.820000    18.045000000    13.452000000    54.426623381   0   0   0 # o*
     64      1   1 -0.820000    18.045000000    10.608000000    42.396623381   0   0   0 # o*
     65      1   1 -0.820000     6.015000000    22.638000000    42.396623381   0   0   0 # o*
     66      1   1 -0.820000     6.015000000    10.608000000    42.396623381   0   0   0 # o*
     67      1   1 -0.820000     6.015000000    10.608000000    54.426623381   0   0   0 # o*
     68      1   1 -0.820000    18.045000000    22.638000000    42.396623381   0   0   0 # o*
     69      1   1 -0.820000    18.045000000    10.608000000    54.426623381   0   0   0 # o*
     70      1   1 -0.820000     6.015000000    22.638000000    54.426623381   0   0   0 # o*
     71      1   1 -0.820000    18.045000000    22.638000000    54.426623381   0   0   0 # o*
     72      1   1 -0.820000    18.045000000     1.422000000    49.785063381   0   0   0 # o*
     73      1   1 -0.820000     6.015000000    13.452000000    49.785063381   0   0   0 # o*
     74      1   1 -0.820000     6.015000000     1.422000000    49.785063381   0   0   0 # o*
     75      1   1 -0.820000     6.015000000     1.422000000    61.815063381   0   0   0 # o*
     76      1   1 -0.820000    18.045000000    13.452000000    49.785063381   0   0   0 # o*
     77      1   1 -0.820000    18.045000000     1.422000000    61.815063381   0   0   0 # o*
     78      1   1 -0.820000     6.015000000    13.452000000    61.815063381   0   0   0 # o*
     79      1   1 -0.820000    18.045000000    13.452000000    61.815063381   0   0   0 # o*
     80      1   1 -0.820000    18.045000000    10.608000000    49.785063381   0   0   0 # o*
     81      1   1 -0.820000     6.015000000    22.638000000    49.785063381   0   0   0 # o*
     82      1   1 -0.820000     6.015000000    10.608000000    49.785063381   0   0   0 # o*
     83      1   1 -0.820000     6.015000000    10.608000000    61.815063381   0   0   0 # o*
     84      1   1 -0.820000    18.045000000    22.638000000    49.785063381   0   0   0 # o*
     85      1   1 -0.820000    18.045000000    10.608000000    61.815063381   0   0   0 # o*
     86      1   1 -0.820000     6.015000000    22.638000000    61.815063381   0   0   0 # o*
     87      1   1 -0.820000    18.045000000    22.638000000    61.815063381   0   0   0 # o*
     88      1   1 -0.820000    15.724680000     4.592850000    40.075843381   0   0   0 # o*
     89      1   1 -0.820000     3.694680000    16.622850000    40.075843381   0   0   0 # o*
     90      1   1 -0.820000     3.694680000     4.592850000    40.075843381   0   0   0 # o*
     91      1   1 -0.820000     3.694680000     4.592850000    52.105843381   0   0   0 # o*
     92      1   1 -0.820000    15.724680000    16.622850000    40.075843381   0   0   0 # o*
     93      1   1 -0.820000    15.724680000     4.592850000    52.105843381   0   0   0 # o*
     94      1   1 -0.820000     3.694680000    16.622850000    52.105843381   0   0   0 # o*
     95      1   1 -0.820000    15.724680000    16.622850000    52.105843381   0   0   0 # o*
     96      1   1 -0.820000     3.694680000     7.437150000    52.105843381   0   0   0 # o*
     97      1   1 -0.820000    15.724680000     7.437150000    52.105843381   0   0   0 # o*
     98      1   1 -0.820000     3.694680000    19.467150000    52.105843381   0   0   0 # o*
     99      1   1 -0.820000    15.724680000    19.467150000    52.105843381   0   0   0 # o*
    100      1   1 -0.820000     3.694680000     7.437150000    64.135843381   0   0   0 # o*
    101      1   1 -0.820000    15.724680000     7.437150000    64.135843381   0   0   0 # o*
    102      1   1 -0.820000     3.694680000    19.467150000    64.135843381   0   0   0 # o*
    103      1   1 -0.820000     2.320320000    12.030000000    44.668693381   0   0   0 # o*
    104      1   1 -0.820000    14.350320000    12.030000000    44.668693381   0   0   0 # o*
    105      1   1 -0.820000     2.320320000     0.000000000    44.668693381   0   1   0 # o*
    106      1   1 -0.820000     2.320320000    12.030000000    56.698693381   0   0   0 # o*
    107      1   1 -0.820000    14.350320000    12.030000000    56.698693381   0   0   0 # o*
    108      1   1 -0.820000     2.320320000     0.000000000    56.698693381   0   1   0 # o*
    109      1   1 -0.820000    14.350320000     0.000000000    47.512993381   0   0   0 # o*
    110      1   1 -0.820000     2.320320000    12.030000000    47.512993381   0   0   0 # o*
    111      1   1 -0.820000     2.320320000     0.000000000    47.512993381   0   0   0 # o*
    112      1   1 -0.820000     2.320320000     0.000000000    59.542993381   0   0   0 # o*
    113      1   1 -0.820000    14.350320000    12.030000000    47.512993381   0   0   0 # o*
    114      1   1 -0.820000    14.350320000     0.000000000    59.542993381   0   0   0 # o*
    115      1   1 -0.820000     2.320320000    12.030000000    59.542993381   0   0   0 # o*
    116      1   1 -0.820000    14.350320000    12.030000000    59.542993381   0   0   0 # o*
    117      1   1 -0.820000    14.293370000     3.712650000    42.285543381   0   0   0 # o*
    118      1   1 -0.820000     2.263370000    15.742650000    42.285543381   0   0   0 # o*
    119      1   1 -0.820000     2.263370000     3.712650000    42.285543381   0   0   0 # o*
    120      1   1 -0.820000     2.263370000     3.712650000    54.315543381   0   0   0 # o*
    121      1   1 -0.820000    14.293370000    15.742650000    42.285543381   0   0   0 # o*
    122      1   1 -0.820000    14.293370000     3.712650000    54.315543381   0   0   0 # o*
    123      1   1 -0.820000     2.263370000    15.742650000    54.315543381   0   0   0 # o*
    124      1   1 -0.820000    14.293370000    15.742650000    54.315543381   0   0   0 # o*
    125      1   1 -0.820000    14.293370000     3.712650000    49.896143381   0   0   0 # o*
    126      1   1 -0.820000     2.263370000    15.742650000    49.896143381   0   0   0 # o*
    127      1   1 -0.820000     2.263370000     3.712650000    49.896143381   0   0   0 # o*
    128      1   1 -0.820000     2.263370000     3.712650000    61.926143381   0   0   0 # o*
    129      1   1 -0.820000    14.293370000    15.742650000    49.896143381   0   0   0 # o*
    130      1   1 -0.820000    14.293370000     3.712650000    61.926143381   0   0   0 # o*
    131      1   1 -0.820000     2.263370000    15.742650000    61.926143381   0   0   0 # o*
    132      1   1 -0.820000    14.293370000    15.742650000    61.926143381   0   0   0 # o*
    133      1   1 -0.820000    14.293370000     8.317350000    42.285543381   0   0   0 # o*
    134      1   1 -0.820000     2.263370000    20.347350000    42.285543381   0   0   0 # o*
    135      1   1 -0.820000     2.263370000     8.317350000    42.285543381   0   0   0 # o*
    136      1   1 -0.820000     2.263370000     8.317350000    54.315543381   0   0   0 # o*
    137      1   1 -0.820000    14.293370000    20.347350000    42.285543381   0   0   0 # o*
    138      1   1 -0.820000    14.293370000     8.317350000    54.315543381   0   0   0 # o*
    139      1   1 -0.820000     2.263370000    20.347350000    54.315543381   0   0   0 # o*
    140      1   1 -0.820000    14.293370000    20.347350000    54.315543381   0   0   0 # o*
    141      1   1 -0.820000    14.293370000     8.317350000    49.896143381   0   0   0 # o*
    142      1   1 -0.820000     2.263370000    20.347350000    49.896143381   0   0   0 # o*
    143      1   1 -0.820000     2.263370000     8.317350000    49.896143381   0   0   0 # o*
    144      1   1 -0.820000     2.263370000     8.317350000    61.926143381   0   0   0 # o*
    145      1   1 -0.820000    14.293370000    20.347350000    49.896143381   0   0   0 # o*
    146      1   1 -0.820000    14.293370000     8.317350000    61.926143381   0   0   0 # o*
    147      1   1 -0.820000     2.263370000    20.347350000    61.926143381   0   0   0 # o*
    148      1   1 -0.820000    14.293370000    20.347350000    61.926143381   0   0   0 # o*
    149      1   1 -0.820000    15.781630000     2.209700000    43.788493381   0   0   0 # o*
    150      1   1 -0.820000     3.751630000    14.239700000    43.788493381   0   0   0 # o*
    151      1   1 -0.820000     3.751630000     2.209700000    43.788493381   0   0   0 # o*
    152      1   1 -0.820000     3.751630000     2.209700000    55.818493381   0   0   0 # o*
    153      1   1 -0.820000    15.781630000    14.239700000    43.788493381   0   0   0 # o*
    154      1   1 -0.820000    15.781630000     2.209700000    55.818493381   0   0   0 # o*
    155      1   1 -0.820000     3.751630000    14.239700000    55.818493381   0   0   0 # o*
    156      1   1 -0.820000    15.781630000    14.239700000    55.818493381   0   0   0 # o*
    157      1   1 -0.820000    15.781630000     9.820300000    43.788493381   0   0   0 # o*
    158      1   1 -0.820000     3.751630000    21.850300000    43.788493381   0   0   0 # o*
    159      1   1 -0.820000     3.751630000     9.820300000    43.788493381   0   0   0 # o*
    160      1   1 -0.820000     3.751630000     9.820300000    55.818493381   0   0   0 # o*
    161      1   1 -0.820000    15.781630000    21.850300000    43.788493381   0   0   0 # o*
    162      1   1 -0.820000    15.781630000     9.820300000    55.818493381   0   0   0 # o*
    163      1   1 -0.820000     3.751630000    21.850300000    55.818493381   0   0   0 # o*
    164      1   1 -0.820000    15.781630000    21.850300000    55.818493381   0   0   0 # o*
    165      1   1 -0.820000    15.781630000     2.209700000    48.393193381   0   0   0 # o*
    166      1   1 -0.820000     3.751630000    14.239700000    48.393193381   0   0   0 # o*
    167      1   1 -0.820000     3.751630000     2.209700000    48.393193381   0   0   0 # o*
    168      1   1 -0.820000     3.751630000     2.209700000    60.423193381   0   0   0 # o*
    169      1   1 -0.820000    15.781630000    14.239700000    48.393193381   0   0   0 # o*
    170      1   1 -0.820000    15.781630000     2.209700000    60.423193381   0   0   0 # o*
    171      1   1 -0.820000     3.751630000    14.239700000    60.423193381   0   0   0 # o*
    172      1   1 -0.820000    15.781630000    14.239700000    60.423193381   0   0   0 # o*
    173      1   1 -0.820000    15.781630000     9.820300000    48.393193381   0   0   0 # o*
    174      1   1 -0.820000     3.751630000    21.850300000    48.393193381   0   0   0 # o*
    175      1   1 -0.820000     3.751630000     9.820300000    48.393193381   0   0   0 # o*
    176      1   1 -0.820000     3.751630000     9.820300000    60.423193381   0   0   0 # o*
    177      1   1 -0.820000    15.781630000    21.850300000    48.393193381   0   0   0 # o*
    178      1   1 -0.820000    15.781630000     9.820300000    60.423193381   0   0   0 # o*
    179      1   1 -0.820000     3.751630000    21.850300000    60.423193381   0   0   0 # o*
    180      1   1 -0.820000    15.781630000    21.850300000    60.423193381   0   0   0 # o*
    181      1   1 -0.820000    20.365320000     4.592850000    40.075843381   0   0   0 # o*
    182      1   1 -0.820000     8.335320000    16.622850000    40.075843381   0   0   0 # o*
    183      1   1 -0.820000     8.335320000     4.592850000    40.075843381   0   0   0 # o*
    184      1   1 -0.820000     8.335320000     4.592850000    52.105843381   0   0   0 # o*
    185      1   1 -0.820000    20.365320000    16.622850000    40.075843381   0   0   0 # o*
    186      1   1 -0.820000    20.365320000     4.592850000    52.105843381   0   0   0 # o*
    187      1   1 -0.820000     8.335320000    16.622850000    52.105843381   0   0   0 # o*
    188      1   1 -0.820000    20.365320000    16.622850000    52.105843381   0   0   0 # o*
    189      1   1 -0.820000     8.335320000     7.437150000    52.105843381   0   0   0 # o*
    190      1   1 -0.820000    20.365320000     7.437150000    52.105843381   0   0   0 # o*
    191      1   1 -0.820000     8.335320000    19.467150000    52.105843381   0   0   0 # o*
    192      1   1 -0.820000    20.365320000    19.467150000    52.105843381   0   0   0 # o*
    193      1   1 -0.820000     8.335320000     7.437150000    64.135843381   0   0   0 # o*
    194      1   1 -0.820000    20.365320000     7.437150000    64.135843381   0   0   0 # o*
    195      1   1 -0.820000     8.335320000    19.467150000    64.135843381   0   0   0 # o*
    196      1   1 -0.820000     9.709680000    12.030000000    44.668693381   0   0   0 # o*
    197      1   1 -0.820000    21.739680000    12.030000000    44.668693381   0   0   0 # o*
    198      1   1 -0.820000     9.709680000     0.000000000    44.668693381   0   1   0 # o*
    199      1   1 -0.820000     9.709680000    12.030000000    56.698693381   0   0   0 # o*
    200      1   1 -0.820000    21.739680000    12.030000000    56.698693381   0   0   0 # o*
    201      1   1 -0.820000     9.709680000     0.000000000    56.698693381   0   1   0 # o*
    202      1   1 -0.820000    21.739680000     0.000000000    47.512993381   0   0   0 # o*
    203      1   1 -0.820000     9.709680000    12.030000000    47.512993381   0   0   0 # o*
    204      1   1 -0.820000     9.709680000     0.000000000    47.512993381   0   0   0 # o*
    205      1   1 -0.820000     9.709680000     0.000000000    59.542993381   0   0   0 # o*
    206      1   1 -0.820000    21.739680000    12.030000000    47.512993381   0   0   0 # o*
    207      1   1 -0.820000    21.739680000     0.000000000    59.542993381   0   0   0 # o*
    208      1   1 -0.820000     9.709680000    12.030000000    59.542993381   0   0   0 # o*
    209      1   1 -0.820000    21.739680000    12.030000000    59.542993381   0   0   0 # o*
    210      1   1 -0.820000    21.796630000     3.712650000    42.285543381   0   0   0 # o*
    211      1   1 -0.820000     9.766630000    15.742650000    42.285543381   0   0   0 # o*
    212      1   1 -0.820000     9.766630000     3.712650000    42.285543381   0   0   0 # o*
    213      1   1 -0.820000     9.766630000     3.712650000    54.315543381   0   0   0 # o*
    214      1   1 -0.820000    21.796630000    15.742650000    42.285543381   0   0   0 # o*
    215      1   1 -0.820000    21.796630000     3.712650000    54.315543381   0   0   0 # o*
    216      1   1 -0.820000     9.766630000    15.742650000    54.315543381   0   0   0 # o*
    217      1   1 -0.820000    21.796630000    15.742650000    54.315543381   0   0   0 # o*
    218      1   1 -0.820000    21.796630000     3.712650000    49.896143381   0   0   0 # o*
    219      1   1 -0.820000     9.766630000    15.742650000    49.896143381   0   0   0 # o*
    220      1   1 -0.820000     9.766630000     3.712650000    49.896143381   0   0   0 # o*
    221      1   1 -0.820000     9.766630000     3.712650000    61.926143381   0   0   0 # o*
    222      1   1 -0.820000    21.796630000    15.742650000    49.896143381   0   0   0 # o*
    223      1   1 -0.820000    21.796630000     3.712650000    61.926143381   0   0   0 # o*
    224      1   1 -0.820000     9.766630000    15.742650000    61.926143381   0   0   0 # o*
    225      1   1 -0.820000    21.796630000    15.742650000    61.926143381   0   0   0 # o*
    226      1   1 -0.820000    21.796630000     8.317350000    42.285543381   0   0   0 # o*
    227      1   1 -0.820000     9.766630000    20.347350000    42.285543381   0   0   0 # o*
    228      1   1 -0.820000     9.766630000     8.317350000    42.285543381   0   0   0 # o*
    229      1   1 -0.820000     9.766630000     8.317350000    54.315543381   0   0   0 # o*
    230      1   1 -0.820000    21.796630000    20.347350000    42.285543381   0   0   0 # o*
    231      1   1 -0.820000    21.796630000     8.317350000    54.315543381   0   0   0 # o*
    232      1   1 -0.820000     9.766630000    20.347350000    54.315543381   0   0   0 # o*
    233      1   1 -0.820000    21.796630000    20.347350000    54.315543381   0   0   0 # o*
    234      1   1 -0.820000    21.796630000     8.317350000    49.896143381   0   0   0 # o*
    235      1   1 -0.820000     9.766630000    20.347350000    49.896143381   0   0   0 # o*
    236      1   1 -0.820000     9.766630000     8.317350000    49.896143381   0   0   0 # o*
    237      1   1 -0.820000     9.766630000     8.317350000    61.926143381   0   0   0 # o*
    238      1   1 -0.820000    21.796630000    20.347350000    49.896143381   0   0   0 # o*
    239      1   1 -0.820000    21.796630000     8.317350000    61.926143381   0   0   0 # o*
    240      1   1 -0.820000     9.766630000    20.347350000    61.926143381   0   0   0 # o*
    241      1   1 -0.820000    21.796630000    20.347350000    61.926143381   0   0   0 # o*
    242      1   1 -0.820000    20.308370000     2.209700000    43.788493381   0   0   0 # o*
    243      1   1 -0.820000     8.278370000    14.239700000    43.788493381   0   0   0 # o*
    244      1   1 -0.820000     8.278370000     2.209700000    43.788493381   0   0   0 # o*
    245      1   1 -0.820000     8.278370000     2.209700000    55.818493381   0   0   0 # o*
    246      1   1 -0.820000    20.308370000    14.239700000    43.788493381   0   0   0 # o*
    247      1   1 -0.820000    20.308370000     2.209700000    55.818493381   0   0   0 # o*
    248      1   1 -0.820000     8.278370000    14.239700000    55.818493381   0   0   0 # o*
    249      1   1 -0.820000    20.308370000    14.239700000    55.818493381   0   0   0 # o*
    250      1   1 -0.820000    20.308370000     9.820300000    43.788493381   0   0   0 # o*
    251      1   1 -0.820000     8.278370000    21.850300000    43.788493381   0   0   0 # o*
    252      1   1 -0.820000     8.278370000     9.820300000    43.788493381   0   0   0 # o*
    253      1   1 -0.820000     8.278370000     9.820300000    55.818493381   0   0   0 # o*
    254      1   1 -0.820000    20.308370000    21.850300000    43.788493381   0   0   0 # o*
    255      1   1 -0.820000    20.308370000     9.820300000    55.818493381   0   0   0 # o*
    256      1   1 -0.820000     8.278370000    21.850300000    55.818493381   0   0   0 # o*
    257      1   1 -0.820000    20.308370000    21.850300000    55.818493381   0   0   0 # o*
    258      1   1 -0.820000    20.308370000     2.209700000    48.393193381   0   0   0 # o*
    259      1   1 -0.820000     8.278370000    14.239700000    48.393193381   0   0   0 # o*
    260      1   1 -0.820000     8.278370000     2.209700000    48.393193381   0   0   0 # o*
    261      1   1 -0.820000     8.278370000     2.209700000    60.423193381   0   0   0 # o*
    262      1   1 -0.820000    20.308370000    14.239700000    48.393193381   0   0   0 # o*
    263      1   1 -0.820000    20.308370000     2.209700000    60.423193381   0   0   0 # o*
    264      1   1 -0.820000     8.278370000    14.239700000    60.423193381   0   0   0 # o*
    265      1   1 -0.820000    20.308370000    14.239700000    60.423193381   0   0   0 # o*
    266      1   1 -0.820000    20.308370000     9.820300000    48.393193381   0   0   0 # o*
    267      1   1 -0.820000     8.278370000    21.850300000    48.393193381   0   0   0 # o*
    268      1   1 -0.820000     8.278370000     9.820300000    48.393193381   0   0   0 # o*
    269      1   1 -0.820000     8.278370000     9.820300000    60.423193381   0   0   0 # o*
    270      1   1 -0.820000    20.308370000    21.850300000    48.393193381   0   0   0 # o*
    271      1   1 -0.820000    20.308370000     9.820300000    60.423193381   0   0   0 # o*
    272      1   1 -0.820000     8.278370000    21.850300000    60.423193381   0   0   0 # o*
    273      1   1 -0.820000    20.308370000    21.850300000    60.423193381   0   0   0 # o*
    274      1   1 -0.820000    15.036070000     6.015000000    46.090843381   0   0   0 # o*
    275      1   1 -0.820000     3.006070000    18.045000000    46.090843381   0   0   0 # o*
    276      1   1 -0.820000     3.006070000     6.015000000    46.090843381   0   0   0 # o*
    277      1   1 -0.820000     3.006070000     6.015000000    58.120843381   0   0   0 # o*
    278      1   1 -0.820000    15.036070000    18.045000000    46.090843381   0   0   0 # o*
    279      1   1 -0.820000    15.036070000     6.015000000    58.120843381   0   0   0 # o*
    280      1   1 -0.820000     3.006070000    18.045000000    58.120843381   0   0   0 # o*
    281      1   1 -0.820000    15.036070000    18.045000000    58.120843381   0   0   0 # o*
    282      1   1 -0.820000    21.053930000     6.015000000    46.090843381   0   0   0 # o*
    283      1   1 -0.820000     9.023930000    18.045000000    46.090843381   0   0   0 # o*
    284      1   1 -0.820000     9.023930000     6.015000000    46.090843381   0   0   0 # o*
    285      1   1 -0.820000     9.023930000     6.015000000    58.120843381   0   0   0 # o*
    286      1   1 -0.820000    21.053930000    18.045000000    46.090843381   0   0   0 # o*
    287      1   1 -0.820000    21.053930000     6.015000000    58.120843381   0   0   0 # o*
    288      1   1 -0.820000     9.023930000    18.045000000    58.120843381   0   0   0 # o*
    289      1   1 -0.820000    21.053930000    18.045000000    58.120843381   0   0   0 # o*
    290      1   1 -0.820000    13.452000000     6.015000000    48.411623381   0   0   0 # o*
    291      1   1 -0.820000     1.422000000    18.045000000    48.411623381   0   0   0 # o*
    292      1   1 -0.820000     1.422000000     6.015000000    48.411623381   0   0   0 # o*
    293      1   1 -0.820000     1.422000000     6.015000000    60.441623381   0   0   0 # o*
    294      1   1 -0.820000    13.452000000    18.045000000    48.411623381   0   0   0 # o*
    295      1   1 -0.820000    13.452000000     6.015000000    60.441623381   0   0   0 # o*
    296      1   1 -0.820000     1.422000000    18.045000000    60.441623381   0   0   0 # o*
    297      1   1 -0.820000    13.452000000    18.045000000    60.441623381   0   0   0 # o*
    298      1   1 -0.820000    22.638000000     6.015000000    48.411623381   0   0   0 # o*
    299      1   1 -0.820000    10.608000000    18.045000000    48.411623381   0   0   0 # o*
    300      1   1 -0.820000    10.608000000     6.015000000    48.411623381   0   0   0 # o*
    301      1   1 -0.820000    10.608000000     6.015000000    60.441623381   0   0   0 # o*
    302      1   1 -0.820000    22.638000000    18.045000000    48.411623381   0   0   0 # o*
    303      1   1 -0.820000    22.638000000     6.015000000    60.441623381   0   0   0 # o*
    304      1   1 -0.820000    10.608000000    18.045000000    60.441623381   0   0   0 # o*
    305      1   1 -0.820000    22.638000000    18.045000000    60.441623381   0   0   0 # o*
    306      1   1 -0.820000    13.452000000     6.015000000    43.770063381   0   0   0 # o*